ITEM: TIMESTEP
0
ITEM: NUMBER OF NODES
8
ITEM: BOX BOUNDS
-0.0432303 416.065
-0.0205235 132.148
0 39.3003
ITEM: NODES
1 1 -0.0432303 -0.0205235 0
2 1 416.065 -0.0205235 0
3 1 416.065 132.148 0
4 1 -0.0432303 132.148 0
5 1 -0.0432303 -0.0205235 39.3003
6 1 416.065 -0.0205235 39.3003
7 1 416.065 132.148 39.3003
8 1 -0.0432303 132.148 39.3003
ITEM: TIMESTEP
0
ITEM: NUMBER OF CUBES
1
ITEM: CUBES
1 1 1 2 3 4 5 6 7 8
ITEM: TIMESTEP
0
ITEM: NUMBER OF NODES
8
ITEM: BOX BOUNDS
-0.0432303 416.065
-0.0205235 132.148
0 39.3003
ITEM: NODES
1 1 -0.0432303 -0.0205235 0
2 1 416.065 -0.0205235 0
3 1 416.065 132.148 0
4 1 -0.0432303 132.148 0
5 1 -0.0432303 -0.0205235 39.3003
6 1 416.065 -0.0205235 39.3003
7 1 416.065 132.148 39.3003
8 1 -0.0432303 132.148 39.3003
ITEM: TIMESTEP
0
ITEM: NUMBER OF CUBES
1
ITEM: CUBES
1 1 1 2 3 4 5 6 7 8
ITEM: TIMESTEP
100
ITEM: NUMBER OF NODES
8
ITEM: BOX BOUNDS
-0.0432303 416.065
-0.0205235 132.234
0 39.3003
ITEM: NODES
1 1 -0.0432303 -0.0205235 0
2 1 416.065 -0.0205235 0
3 1 416.065 132.234 0
4 1 -0.0432303 132.234 0
5 1 -0.0432303 -0.0205235 39.3003
6 1 416.065 -0.0205235 39.3003
7 1 416.065 132.234 39.3003
8 1 -0.0432303 132.234 39.3003
ITEM: TIMESTEP
100
ITEM: NUMBER OF CUBES
1
ITEM: CUBES
1 1 1 2 3 4 5 6 7 8
ITEM: TIMESTEP
200
ITEM: NUMBER OF NODES
8
ITEM: BOX BOUNDS
-0.0432303 416.065
-0.0205235 132.358
0 39.3003
ITEM: NODES
1 1 -0.0432303 -0.0205235 0
2 1 416.065 -0.0205235 0
3 1 416.065 132.358 0
4 1 -0.0432303 132.358 0
5 1 -0.0432303 -0.0205235 39.3003
6 1 416.065 -0.0205235 39.3003
7 1 416.065 132.358 39.3003
8 1 -0.0432303 132.358 39.3003
ITEM: TIMESTEP
200
ITEM: NUMBER OF CUBES
1
ITEM: CUBES
1 1 1 2 3 4 5 6 7 8
ITEM: TIMESTEP
300
ITEM: NUMBER OF NODES
8
ITEM: BOX BOUNDS
-0.0432303 416.065
-0.0205235 132.342
0 39.3003
ITEM: NODES
1 1 -0.0432303 -0.0205235 0
2 1 416.065 -0.0205235 0
3 1 416.065 132.342 0
4 1 -0.0432303 132.342 0
5 1 -0.0432303 -0.0205235 39.3003
6 1 416.065 -0.0205235 39.3003
7 1 416.065 132.342 39.3003
8 1 -0.0432303 132.342 39.3003
ITEM: TIMESTEP
300
ITEM: NUMBER OF CUBES
1
ITEM: CUBES
1 1 1 2 3 4 5 6 7 8
ITEM: TIMESTEP
400
ITEM: NUMBER OF NODES
8
ITEM: BOX BOUNDS
-0.0432303 416.065
-0.0205235 132.388
0 39.3003
ITEM: NODES
1 1 -0.0432303 -0.0205235 0
2 1 416.065 -0.0205235 0
3 1 416.065 132.388 0
4 1 -0.0432303 132.388 0
5 1 -0.0432303 -0.0205235 39.3003
6 1 416.065 -0.0205235 39.3003
7 1 416.065 132.388 39.3003
8 1 -0.0432303 132.388 39.3003
ITEM: TIMESTEP
400
ITEM: NUMBER OF CUBES
1
ITEM: CUBES
1 1 1 2 3 4 5 6 7 8
ITEM: TIMESTEP
500
ITEM: NUMBER OF NODES
8
ITEM: BOX BOUNDS
-0.0432303 416.065
-0.0205235 132.4
0 39.3003
ITEM: NODES
1 1 -0.0432303 -0.0205235 0
2 1 416.065 -0.0205235 0
3 1 416.065 132.4 0
4 1 -0.0432303 132.4 0
5 1 -0.0432303 -0.0205235 39.3003
6 1 416.065 -0.0205235 39.3003
7 1 416.065 132.4 39.3003
8 1 -0.0432303 132.4 39.3003
ITEM: TIMESTEP
500
ITEM: NUMBER OF CUBES
1
ITEM: CUBES
1 1 1 2 3 4 5 6 7 8
ITEM: TIMESTEP
600
ITEM: NUMBER OF NODES
8
ITEM: BOX BOUNDS
-0.0432303 416.065
-0.0205235 132.515
0 39.3003
ITEM: NODES
1 1 -0.0432303 -0.0205235 0
2 1 416.065 -0.0205235 0
3 1 416.065 132.515 0
4 1 -0.0432303 132.515 0
5 1 -0.0432303 -0.0205235 39.3003
6 1 416.065 -0.0205235 39.3003
7 1 416.065 132.515 39.3003
8 1 -0.0432303 132.515 39.3003
ITEM: TIMESTEP
600
ITEM: NUMBER OF CUBES
1
ITEM: CUBES
1 1 1 2 3 4 5 6 7 8
ITEM: TIMESTEP
700
ITEM: NUMBER OF NODES
8
ITEM: BOX BOUNDS
-0.0432303 416.065
-0.0205235 132.746
0 39.3003
ITEM: NODES
1 1 -0.0432303 -0.0205235 0
2 1 416.065 -0.0205235 0
3 1 416.065 132.746 0
4 1 -0.0432303 132.746 0
5 1 -0.0432303 -0.0205235 39.3003
6 1 416.065 -0.0205235 39.3003
7 1 416.065 132.746 39.3003
8 1 -0.0432303 132.746 39.3003
ITEM: TIMESTEP
700
ITEM: NUMBER OF CUBES
1
ITEM: CUBES
1 1 1 2 3 4 5 6 7 8
ITEM: TIMESTEP
800
ITEM: NUMBER OF NODES
8
ITEM: BOX BOUNDS
-0.0432303 416.065
-0.0205235 132.809
0 39.3003
ITEM: NODES
1 1 -0.0432303 -0.0205235 0
2 1 416.065 -0.0205235 0
3 1 416.065 132.809 0
4 1 -0.0432303 132.809 0
5 1 -0.0432303 -0.0205235 39.3003
6 1 416.065 -0.0205235 39.3003
7 1 416.065 132.809 39.3003
8 1 -0.0432303 132.809 39.3003
ITEM: TIMESTEP
800
ITEM: NUMBER OF CUBES
1
ITEM: CUBES
1 1 1 2 3 4 5 6 7 8
ITEM: TIMESTEP
900
ITEM: NUMBER OF NODES
8
ITEM: BOX BOUNDS
-0.0432303 416.065
-0.0205235 132.8
0 39.3003
ITEM: NODES
1 1 -0.0432303 -0.0205235 0
2 1 416.065 -0.0205235 0
3 1 416.065 132.8 0
4 1 -0.0432303 132.8 0
5 1 -0.0432303 -0.0205235 39.3003
6 1 416.065 -0.0205235 39.3003
7 1 416.065 132.8 39.3003
8 1 -0.0432303 132.8 39.3003
ITEM: TIMESTEP
900
ITEM: NUMBER OF CUBES
1
ITEM: CUBES
1 1 1 2 3 4 5 6 7 8
ITEM: TIMESTEP
1000
ITEM: NUMBER OF NODES
8
ITEM: BOX BOUNDS
-0.0432303 416.065
-0.0205235 132.912
0 39.3003
ITEM: NODES
1 1 -0.0432303 -0.0205235 0
2 1 416.065 -0.0205235 0
3 1 416.065 132.912 0
4 1 -0.0432303 132.912 0
5 1 -0.0432303 -0.0205235 39.3003
6 1 416.065 -0.0205235 39.3003
7 1 416.065 132.912 39.3003
8 1 -0.0432303 132.912 39.3003
ITEM: TIMESTEP
1000
ITEM: NUMBER OF CUBES
1
ITEM: CUBES
1 1 1 2 3 4 5 6 7 8
ITEM: TIMESTEP
1100
ITEM: NUMBER OF NODES
8
ITEM: BOX BOUNDS
-0.0432303 416.065
-0.0205235 133.014
0 39.3003
ITEM: NODES
1 1 -0.0432303 -0.0205235 0
2 1 416.065 -0.0205235 0
3 1 416.065 133.014 0
4 1 -0.0432303 133.014 0
5 1 -0.0432303 -0.0205235 39.3003
6 1 416.065 -0.0205235 39.3003
7 1 416.065 133.014 39.3003
8 1 -0.0432303 133.014 39.3003
ITEM: TIMESTEP
1100
ITEM: NUMBER OF CUBES
1
ITEM: CUBES
1 1 1 2 3 4 5 6 7 8
ITEM: TIMESTEP
1200
ITEM: NUMBER OF NODES
8
ITEM: BOX BOUNDS
-0.0432303 416.065
-0.0205235 133.05
0 39.3003
ITEM: NODES
1 1 -0.0432303 -0.0205235 0
2 1 416.065 -0.0205235 0
3 1 416.065 133.05 0
4 1 -0.0432303 133.05 0
5 1 -0.0432303 -0.0205235 39.3003
6 1 416.065 -0.0205235 39.3003
7 1 416.065 133.05 39.3003
8 1 -0.0432303 133.05 39.3003
ITEM: TIMESTEP
1200
ITEM: NUMBER OF CUBES
1
ITEM: CUBES
1 1 1 2 3 4 5 6 7 8
ITEM: TIMESTEP
1300
ITEM: NUMBER OF NODES
8
ITEM: BOX BOUNDS
-0.0432303 416.065
-0.0205235 133.155
0 39.3003
ITEM: NODES
1 1 -0.0432303 -0.0205235 0
2 1 416.065 -0.0205235 0
3 1 416.065 133.155 0
4 1 -0.0432303 133.155 0
5 1 -0.0432303 -0.0205235 39.3003
6 1 416.065 -0.0205235 39.3003
7 1 416.065 133.155 39.3003
8 1 -0.0432303 133.155 39.3003
ITEM: TIMESTEP
1300
ITEM: NUMBER OF CUBES
1
ITEM: CUBES
1 1 1 2 3 4 5 6 7 8
ITEM: TIMESTEP
1400
ITEM: NUMBER OF NODES
8
ITEM: BOX BOUNDS
-0.0432303 416.065
-0.0205235 133.344
0 39.3003
ITEM: NODES
1 1 -0.0432303 -0.0205235 0
2 1 416.065 -0.0205235 0
3 1 416.065 133.344 0
4 1 -0.0432303 133.344 0
5 1 -0.0432303 -0.0205235 39.3003
6 1 416.065 -0.0205235 39.3003
7 1 416.065 133.344 39.3003
8 1 -0.0432303 133.344 39.3003
ITEM: TIMESTEP
1400
ITEM: NUMBER OF CUBES
1
ITEM: CUBES
1 1 1 2 3 4 5 6 7 8
ITEM: TIMESTEP
1500
ITEM: NUMBER OF NODES
8
ITEM: BOX BOUNDS
-0.0432303 416.065
-0.0205235 133.384
0 39.3003
ITEM: NODES
1 1 -0.0432303 -0.0205235 0
2 1 416.065 -0.0205235 0
3 1 416.065 133.384 0
4 1 -0.0432303 133.384 0
5 1 -0.0432303 -0.0205235 39.3003
6 1 416.065 -0.0205235 39.3003
7 1 416.065 133.384 39.3003
8 1 -0.0432303 133.384 39.3003
ITEM: TIMESTEP
1500
ITEM: NUMBER OF CUBES
1
ITEM: CUBES
1 1 1 2 3 4 5 6 7 8
ITEM: TIMESTEP
1600
ITEM: NUMBER OF NODES
8
ITEM: BOX BOUNDS
-0.0432303 416.065
-0.0205235 133.376
0 39.3003
ITEM: NODES
1 1 -0.0432303 -0.0205235 0
2 1 416.065 -0.0205235 0
3 1 416.065 133.376 0
4 1 -0.0432303 133.376 0
5 1 -0.0432303 -0.0205235 39.3003
6 1 416.065 -0.0205235 39.3003
7 1 416.065 133.376 39.3003
8 1 -0.0432303 133.376 39.3003
ITEM: TIMESTEP
1600
ITEM: NUMBER OF CUBES
1
ITEM: CUBES
1 1 1 2 3 4 5 6 7 8
ITEM: TIMESTEP
1700
ITEM: NUMBER OF NODES
8
ITEM: BOX BOUNDS
-0.0432303 416.065
-0.0205235 133.285
0 39.3003
ITEM: NODES
1 1 -0.0432303 -0.0205235 0
2 1 416.065 -0.0205235 0
3 1 416.065 133.285 0
4 1 -0.0432303 133.285 0
5 1 -0.0432303 -0.0205235 39.3003
6 1 416.065 -0.0205235 39.3003
7 1 416.065 133.285 39.3003
8 1 -0.0432303 133.285 39.3003
ITEM: TIMESTEP
1700
ITEM: NUMBER OF CUBES
1
ITEM: CUBES
1 1 1 2 3 4 5 6 7 8
ITEM: TIMESTEP
1800
ITEM: NUMBER OF NODES
8
ITEM: BOX BOUNDS
-0.0432303 416.065
-0.0205235 133.22
0 39.3003
ITEM: NODES
1 1 -0.0432303 -0.0205235 0
2 1 416.065 -0.0205235 0
3 1 416.065 133.22 0
4 1 -0.0432303 133.22 0
5 1 -0.0432303 -0.0205235 39.3003
6 1 416.065 -0.0205235 39.3003
7 1 416.065 133.22 39.3003
8 1 -0.0432303 133.22 39.3003
ITEM: TIMESTEP
1800
ITEM: NUMBER OF CUBES
1
ITEM: CUBES
1 1 1 2 3 4 5 6 7 8
ITEM: TIMESTEP
1900
ITEM: NUMBER OF NODES
8
ITEM: BOX BOUNDS
-0.0432303 416.065
-0.0205235 133.109
0 39.3003
ITEM: NODES
1 1 -0.0432303 -0.0205235 0
2 1 416.065 -0.0205235 0
3 1 416.065 133.109 0
4 1 -0.0432303 133.109 0
5 1 -0.0432303 -0.0205235 39.3003
6 1 416.065 -0.0205235 39.3003
7 1 416.065 133.109 39.3003
8 1 -0.0432303 133.109 39.3003
ITEM: TIMESTEP
1900
ITEM: NUMBER OF CUBES
1
ITEM: CUBES
1 1 1 2 3 4 5 6 7 8
ITEM: TIMESTEP
2000
ITEM: NUMBER OF NODES
8
ITEM: BOX BOUNDS
-0.0432303 416.065
-0.0205235 132.95
0 39.3003
ITEM: NODES
1 1 -0.0432303 -0.0205235 0
2 1 416.065 -0.0205235 0
3 1 416.065 132.95 0
4 1 -0.0432303 132.95 0
5 1 -0.0432303 -0.0205235 39.3003
6 1 416.065 -0.0205235 39.3003
7 1 416.065 132.95 39.3003
8 1 -0.0432303 132.95 39.3003
ITEM: TIMESTEP
2000
ITEM: NUMBER OF CUBES
1
ITEM: CUBES
1 1 1 2 3 4 5 6 7 8
ITEM: TIMESTEP
2100
ITEM: NUMBER OF NODES
8
ITEM: BOX BOUNDS
-0.0432303 416.065
-0.0205235 132.962
0 39.3003
ITEM: NODES
1 1 -0.0432303 -0.0205235 0
2 1 416.065 -0.0205235 0
3 1 416.065 132.962 0
4 1 -0.0432303 132.962 0
5 1 -0.0432303 -0.0205235 39.3003
6 1 416.065 -0.0205235 39.3003
7 1 416.065 132.962 39.3003
8 1 -0.0432303 132.962 39.3003
ITEM: TIMESTEP
2100
ITEM: NUMBER OF CUBES
1
ITEM: CUBES
1 1 1 2 3 4 5 6 7 8
ITEM: TIMESTEP
2200
ITEM: NUMBER OF NODES
8
ITEM: BOX BOUNDS
-0.0432303 416.065
-0.0205235 133.044
0 39.3003
ITEM: NODES
1 1 -0.0432303 -0.0205235 0
2 1 416.065 -0.0205235 0
3 1 416.065 133.044 0
4 1 -0.0432303 133.044 0
5 1 -0.0432303 -0.0205235 39.3003
6 1 416.065 -0.0205235 39.3003
7 1 416.065 133.044 39.3003
8 1 -0.0432303 133.044 39.3003
ITEM: TIMESTEP
2200
ITEM: NUMBER OF CUBES
1
ITEM: CUBES
1 1 1 2 3 4 5 6 7 8
ITEM: TIMESTEP
2300
ITEM: NUMBER OF NODES
8
ITEM: BOX BOUNDS
-0.0432303 416.065
-0.0205235 132.739
0 39.3003
ITEM: NODES
1 1 -0.0432303 -0.0205235 0
2 1 416.065 -0.0205235 0
3 1 416.065 132.739 0
4 1 -0.0432303 132.739 0
5 1 -0.0432303 -0.0205235 39.3003
6 1 416.065 -0.0205235 39.3003
7 1 416.065 132.739 39.3003
8 1 -0.0432303 132.739 39.3003
ITEM: TIMESTEP
2300
ITEM: NUMBER OF CUBES
1
ITEM: CUBES
1 1 1 2 3 4 5 6 7 8
ITEM: TIMESTEP
2400
ITEM: NUMBER OF NODES
8
ITEM: BOX BOUNDS
-0.0432303 416.065
-0.0205235 132.555
0 39.3003
ITEM: NODES
1 1 -0.0432303 -0.0205235 0
2 1 416.065 -0.0205235 0
3 1 416.065 132.555 0
4 1 -0.0432303 132.555 0
5 1 -0.0432303 -0.0205235 39.3003
6 1 416.065 -0.0205235 39.3003
7 1 416.065 132.555 39.3003
8 1 -0.0432303 132.555 39.3003
ITEM: TIMESTEP
2400
ITEM: NUMBER OF CUBES
1
ITEM: CUBES
1 1 1 2 3 4 5 6 7 8
ITEM: TIMESTEP
2500
ITEM: NUMBER OF NODES
8
ITEM: BOX BOUNDS
-0.0432303 416.065
-0.0205235 132.361
0 39.3003
ITEM: NODES
1 1 -0.0432303 -0.0205235 0
2 1 416.065 -0.0205235 0
3 1 416.065 132.361 0
4 1 -0.0432303 132.361 0
5 1 -0.0432303 -0.0205235 39.3003
6 1 416.065 -0.0205235 39.3003
7 1 416.065 132.361 39.3003
8 1 -0.0432303 132.361 39.3003
ITEM: TIMESTEP
2500
ITEM: NUMBER OF CUBES
1
ITEM: CUBES
1 1 1 2 3 4 5 6 7 8
ITEM: TIMESTEP
2600
ITEM: NUMBER OF NODES
8
ITEM: BOX BOUNDS
-0.0432303 416.065
-0.0205235 132.32
0 39.3003
ITEM: NODES
1 1 -0.0432303 -0.0205235 0
2 1 416.065 -0.0205235 0
3 1 416.065 132.32 0
4 1 -0.0432303 132.32 0
5 1 -0.0432303 -0.0205235 39.3003
6 1 416.065 -0.0205235 39.3003
7 1 416.065 132.32 39.3003
8 1 -0.0432303 132.32 39.3003
ITEM: TIMESTEP
2600
ITEM: NUMBER OF CUBES
1
ITEM: CUBES
1 1 1 2 3 4 5 6 7 8
ITEM: TIMESTEP
2700
ITEM: NUMBER OF NODES
8
ITEM: BOX BOUNDS
-0.0432303 416.065
-0.0205235 132.258
0 39.3003
ITEM: NODES
1 1 -0.0432303 -0.0205235 0
2 1 416.065 -0.0205235 0
3 1 416.065 132.258 0
4 1 -0.0432303 132.258 0
5 1 -0.0432303 -0.0205235 39.3003
6 1 416.065 -0.0205235 39.3003
7 1 416.065 132.258 39.3003
8 1 -0.0432303 132.258 39.3003
ITEM: TIMESTEP
2700
ITEM: NUMBER OF CUBES
1
ITEM: CUBES
1 1 1 2 3 4 5 6 7 8
ITEM: TIMESTEP
2800
ITEM: NUMBER OF NODES
8
ITEM: BOX BOUNDS
-0.0432303 416.065
-0.0205235 132.154
0 39.3003
ITEM: NODES
1 1 -0.0432303 -0.0205235 0
2 1 416.065 -0.0205235 0
3 1 416.065 132.154 0
4 1 -0.0432303 132.154 0
5 1 -0.0432303 -0.0205235 39.3003
6 1 416.065 -0.0205235 39.3003
7 1 416.065 132.154 39.3003
8 1 -0.0432303 132.154 39.3003
ITEM: TIMESTEP
2800
ITEM: NUMBER OF CUBES
1
ITEM: CUBES
1 1 1 2 3 4 5 6 7 8
ITEM: TIMESTEP
2900
ITEM: NUMBER OF NODES
8
ITEM: BOX BOUNDS
-0.0432303 416.065
-0.0205235 132.2
0 39.3003
ITEM: NODES
1 1 -0.0432303 -0.0205235 0
2 1 416.065 -0.0205235 0
3 1 416.065 132.2 0
4 1 -0.0432303 132.2 0
5 1 -0.0432303 -0.0205235 39.3003
6 1 416.065 -0.0205235 39.3003
7 1 416.065 132.2 39.3003
8 1 -0.0432303 132.2 39.3003
ITEM: TIMESTEP
2900
ITEM: NUMBER OF CUBES
1
ITEM: CUBES
1 1 1 2 3 4 5 6 7 8
ITEM: TIMESTEP
3000
ITEM: NUMBER OF NODES
8
ITEM: BOX BOUNDS
-0.0432303 416.065
-0.0205235 132.213
0 39.3003
ITEM: NODES
1 1 -0.0432303 -0.0205235 0
2 1 416.065 -0.0205235 0
3 1 416.065 132.213 0
4 1 -0.0432303 132.213 0
5 1 -0.0432303 -0.0205235 39.3003
6 1 416.065 -0.0205235 39.3003
7 1 416.065 132.213 39.3003
8 1 -0.0432303 132.213 39.3003
ITEM: TIMESTEP
3000
ITEM: NUMBER OF CUBES
1
ITEM: CUBES
1 1 1 2 3 4 5 6 7 8
ITEM: TIMESTEP
3100
ITEM: NUMBER OF NODES
8
ITEM: BOX BOUNDS
-0.0432303 416.065
-0.0205235 132.192
0 39.3003
ITEM: NODES
1 1 -0.0432303 -0.0205235 0
2 1 416.065 -0.0205235 0
3 1 416.065 132.192 0
4 1 -0.0432303 132.192 0
5 1 -0.0432303 -0.0205235 39.3003
6 1 416.065 -0.0205235 39.3003
7 1 416.065 132.192 39.3003
8 1 -0.0432303 132.192 39.3003
ITEM: TIMESTEP
3100
ITEM: NUMBER OF CUBES
1
ITEM: CUBES
1 1 1 2 3 4 5 6 7 8
ITEM: TIMESTEP
3200
ITEM: NUMBER OF NODES
8
ITEM: BOX BOUNDS
-0.0432303 416.065
-0.0205235 132.148
0 39.3003
ITEM: NODES
1 1 -0.0432303 -0.0205235 0
2 1 416.065 -0.0205235 0
3 1 416.065 132.148 0
4 1 -0.0432303 132.148 0
5 1 -0.0432303 -0.0205235 39.3003
6 1 416.065 -0.0205235 39.3003
7 1 416.065 132.148 39.3003
8 1 -0.0432303 132.148 39.3003
ITEM: TIMESTEP
3200
ITEM: NUMBER OF CUBES
1
ITEM: CUBES
1 1 1 2 3 4 5 6 7 8
ITEM: TIMESTEP
3300
ITEM: NUMBER OF NODES
8
ITEM: BOX BOUNDS
-0.0432303 416.065
-0.0205235 132.148
0 39.3003
ITEM: NODES
1 1 -0.0432303 -0.0205235 0
2 1 416.065 -0.0205235 0
3 1 416.065 132.148 0
4 1 -0.0432303 132.148 0
5 1 -0.0432303 -0.0205235 39.3003
6 1 416.065 -0.0205235 39.3003
7 1 416.065 132.148 39.3003
8 1 -0.0432303 132.148 39.3003
ITEM: TIMESTEP
3300
ITEM: NUMBER OF CUBES
1
ITEM: CUBES
1 1 1 2 3 4 5 6 7 8
ITEM: TIMESTEP
3400
ITEM: NUMBER OF NODES
8
ITEM: BOX BOUNDS
-0.0432303 416.065
-0.0205235 132.148
0 39.3003
ITEM: NODES
1 1 -0.0432303 -0.0205235 0
2 1 416.065 -0.0205235 0
3 1 416.065 132.148 0
4 1 -0.0432303 132.148 0
5 1 -0.0432303 -0.0205235 39.3003
6 1 416.065 -0.0205235 39.3003
7 1 416.065 132.148 39.3003
8 1 -0.0432303 132.148 39.3003
ITEM: TIMESTEP
3400
ITEM: NUMBER OF CUBES
1
ITEM: CUBES
1 1 1 2 3 4 5 6 7 8
ITEM: TIMESTEP
3500
ITEM: NUMBER OF NODES
8
ITEM: BOX BOUNDS
-0.0432303 416.065
-0.0205235 132.148
0 39.3003
ITEM: NODES
1 1 -0.0432303 -0.0205235 0
2 1 416.065 -0.0205235 0
3 1 416.065 132.148 0
4 1 -0.0432303 132.148 0
5 1 -0.0432303 -0.0205235 39.3003
6 1 416.065 -0.0205235 39.3003
7 1 416.065 132.148 39.3003
8 1 -0.0432303 132.148 39.3003
ITEM: TIMESTEP
3500
ITEM: NUMBER OF CUBES
1
ITEM: CUBES
1 1 1 2 3 4 5 6 7 8
ITEM: TIMESTEP
3600
ITEM: NUMBER OF NODES
8
ITEM: BOX BOUNDS
-0.0432303 416.065
-0.0205235 132.148
0 39.3003
ITEM: NODES
1 1 -0.0432303 -0.0205235 0
2 1 416.065 -0.0205235 0
3 1 416.065 132.148 0
4 1 -0.0432303 132.148 0
5 1 -0.0432303 -0.0205235 39.3003
6 1 416.065 -0.0205235 39.3003
7 1 416.065 132.148 39.3003
8 1 -0.0432303 132.148 39.3003
ITEM: TIMESTEP
3600
ITEM: NUMBER OF CUBES
1
ITEM: CUBES
1 1 1 2 3 4 5 6 7 8
ITEM: TIMESTEP
3700
ITEM: NUMBER OF NODES
8
ITEM: BOX BOUNDS
-0.0432303 416.065
-0.0205235 132.155
0 39.3003
ITEM: NODES
1 1 -0.0432303 -0.0205235 0
2 1 416.065 -0.0205235 0
3 1 416.065 132.155 0
4 1 -0.0432303 132.155 0
5 1 -0.0432303 -0.0205235 39.3003
6 1 416.065 -0.0205235 39.3003
7 1 416.065 132.155 39.3003
8 1 -0.0432303 132.155 39.3003
ITEM: TIMESTEP
3700
ITEM: NUMBER OF CUBES
1
ITEM: CUBES
1 1 1 2 3 4 5 6 7 8
ITEM: TIMESTEP
3800
ITEM: NUMBER OF NODES
8
ITEM: BOX BOUNDS
-0.0432303 416.065
-0.0205235 132.148
0 39.3003
ITEM: NODES
1 1 -0.0432303 -0.0205235 0
2 1 416.065 -0.0205235 0
3 1 416.065 132.148 0
4 1 -0.0432303 132.148 0
5 1 -0.0432303 -0.0205235 39.3003
6 1 416.065 -0.0205235 39.3003
7 1 416.065 132.148 39.3003
8 1 -0.0432303 132.148 39.3003
ITEM: TIMESTEP
3800
ITEM: NUMBER OF CUBES
1
ITEM: CUBES
1 1 1 2 3 4 5 6 7 8
ITEM: TIMESTEP
3900
ITEM: NUMBER OF NODES
8
ITEM: BOX BOUNDS
-0.0432303 416.065
-0.0205235 132.148
0 39.3003
ITEM: NODES
1 1 -0.0432303 -0.0205235 0
2 1 416.065 -0.0205235 0
3 1 416.065 132.148 0
4 1 -0.0432303 132.148 0
5 1 -0.0432303 -0.0205235 39.3003
6 1 416.065 -0.0205235 39.3003
7 1 416.065 132.148 39.3003
8 1 -0.0432303 132.148 39.3003
ITEM: TIMESTEP
3900
ITEM: NUMBER OF CUBES
1
ITEM: CUBES
1 1 1 2 3 4 5 6 7 8
ITEM: TIMESTEP
4000
ITEM: NUMBER OF NODES
8
ITEM: BOX BOUNDS
-0.0432303 416.065
-0.0205235 132.148
0 39.3003
ITEM: NODES
1 1 -0.0432303 -0.0205235 0
2 1 416.065 -0.0205235 0
3 1 416.065 132.148 0
4 1 -0.0432303 132.148 0
5 1 -0.0432303 -0.0205235 39.3003
6 1 416.065 -0.0205235 39.3003
7 1 416.065 132.148 39.3003
8 1 -0.0432303 132.148 39.3003
ITEM: TIMESTEP
4000
ITEM: NUMBER OF CUBES
1
ITEM: CUBES
1 1 1 2 3 4 5 6 7 8
ITEM: TIMESTEP
4100
ITEM: NUMBER OF NODES
8
ITEM: BOX BOUNDS
-0.0432303 416.065
-0.0205235 132.148
0 39.3003
ITEM: NODES
1 1 -0.0432303 -0.0205235 0
2 1 416.065 -0.0205235 0
3 1 416.065 132.148 0
4 1 -0.0432303 132.148 0
5 1 -0.0432303 -0.0205235 39.3003
6 1 416.065 -0.0205235 39.3003
7 1 416.065 132.148 39.3003
8 1 -0.0432303 132.148 39.3003
ITEM: TIMESTEP
4100
ITEM: NUMBER OF CUBES
1
ITEM: CUBES
1 1 1 2 3 4 5 6 7 8
ITEM: TIMESTEP
4200
ITEM: NUMBER OF NODES
8
ITEM: BOX BOUNDS
-0.0432303 416.065
-0.0205235 132.165
0 39.3003
ITEM: NODES
1 1 -0.0432303 -0.0205235 0
2 1 416.065 -0.0205235 0
3 1 416.065 132.165 0
4 1 -0.0432303 132.165 0
5 1 -0.0432303 -0.0205235 39.3003
6 1 416.065 -0.0205235 39.3003
7 1 416.065 132.165 39.3003
8 1 -0.0432303 132.165 39.3003
ITEM: TIMESTEP
4200
ITEM: NUMBER OF CUBES
1
ITEM: CUBES
1 1 1 2 3 4 5 6 7 8
ITEM: TIMESTEP
4300
ITEM: NUMBER OF NODES
8
ITEM: BOX BOUNDS
-0.0432303 416.065
-0.0205235 132.193
0 39.3003
ITEM: NODES
1 1 -0.0432303 -0.0205235 0
2 1 416.065 -0.0205235 0
3 1 416.065 132.193 0
4 1 -0.0432303 132.193 0
5 1 -0.0432303 -0.0205235 39.3003
6 1 416.065 -0.0205235 39.3003
7 1 416.065 132.193 39.3003
8 1 -0.0432303 132.193 39.3003
ITEM: TIMESTEP
4300
ITEM: NUMBER OF CUBES
1
ITEM: CUBES
1 1 1 2 3 4 5 6 7 8
ITEM: TIMESTEP
4400
ITEM: NUMBER OF NODES
8
ITEM: BOX BOUNDS
-0.0432303 416.065
-0.0205235 132.256
0 39.3003
ITEM: NODES
1 1 -0.0432303 -0.0205235 0
2 1 416.065 -0.0205235 0
3 1 416.065 132.256 0
4 1 -0.0432303 132.256 0
5 1 -0.0432303 -0.0205235 39.3003
6 1 416.065 -0.0205235 39.3003
7 1 416.065 132.256 39.3003
8 1 -0.0432303 132.256 39.3003
ITEM: TIMESTEP
4400
ITEM: NUMBER OF CUBES
1
ITEM: CUBES
1 1 1 2 3 4 5 6 7 8
ITEM: TIMESTEP
4500
ITEM: NUMBER OF NODES
8
ITEM: BOX BOUNDS
-0.0432303 416.065
-0.0205235 132.275
0 39.3003
ITEM: NODES
1 1 -0.0432303 -0.0205235 0
2 1 416.065 -0.0205235 0
3 1 416.065 132.275 0
4 1 -0.0432303 132.275 0
5 1 -0.0432303 -0.0205235 39.3003
6 1 416.065 -0.0205235 39.3003
7 1 416.065 132.275 39.3003
8 1 -0.0432303 132.275 39.3003
ITEM: TIMESTEP
4500
ITEM: NUMBER OF CUBES
1
ITEM: CUBES
1 1 1 2 3 4 5 6 7 8
ITEM: TIMESTEP
4600
ITEM: NUMBER OF NODES
8
ITEM: BOX BOUNDS
-0.0432303 416.065
-0.0205235 132.33
0 39.3003
ITEM: NODES
1 1 -0.0432303 -0.0205235 0
2 1 416.065 -0.0205235 0
3 1 416.065 132.33 0
4 1 -0.0432303 132.33 0
5 1 -0.0432303 -0.0205235 39.3003
6 1 416.065 -0.0205235 39.3003
7 1 416.065 132.33 39.3003
8 1 -0.0432303 132.33 39.3003
ITEM: TIMESTEP
4600
ITEM: NUMBER OF CUBES
1
ITEM: CUBES
1 1 1 2 3 4 5 6 7 8
ITEM: TIMESTEP
4700
ITEM: NUMBER OF NODES
8
ITEM: BOX BOUNDS
-0.0432303 416.065
-0.0205235 132.41
0 39.3003
ITEM: NODES
1 1 -0.0432303 -0.0205235 0
2 1 416.065 -0.0205235 0
3 1 416.065 132.41 0
4 1 -0.0432303 132.41 0
5 1 -0.0432303 -0.0205235 39.3003
6 1 416.065 -0.0205235 39.3003
7 1 416.065 132.41 39.3003
8 1 -0.0432303 132.41 39.3003
ITEM: TIMESTEP
4700
ITEM: NUMBER OF CUBES
1
ITEM: CUBES
1 1 1 2 3 4 5 6 7 8
ITEM: TIMESTEP
4800
ITEM: NUMBER OF NODES
8
ITEM: BOX BOUNDS
-0.0432303 416.065
-0.0205235 132.433
0 39.3003
ITEM: NODES
1 1 -0.0432303 -0.0205235 0
2 1 416.065 -0.0205235 0
3 1 416.065 132.433 0
4 1 -0.0432303 132.433 0
5 1 -0.0432303 -0.0205235 39.3003
6 1 416.065 -0.0205235 39.3003
7 1 416.065 132.433 39.3003
8 1 -0.0432303 132.433 39.3003
ITEM: TIMESTEP
4800
ITEM: NUMBER OF CUBES
1
ITEM: CUBES
1 1 1 2 3 4 5 6 7 8
ITEM: TIMESTEP
4900
ITEM: NUMBER OF NODES
8
ITEM: BOX BOUNDS
-0.0432303 416.065
-0.0205235 132.488
0 39.3003
ITEM: NODES
1 1 -0.0432303 -0.0205235 0
2 1 416.065 -0.0205235 0
3 1 416.065 132.488 0
4 1 -0.0432303 132.488 0
5 1 -0.0432303 -0.0205235 39.3003
6 1 416.065 -0.0205235 39.3003
7 1 416.065 132.488 39.3003
8 1 -0.0432303 132.488 39.3003
ITEM: TIMESTEP
4900
ITEM: NUMBER OF CUBES
1
ITEM: CUBES
1 1 1 2 3 4 5 6 7 8
ITEM: TIMESTEP
5000
ITEM: NUMBER OF NODES
8
ITEM: BOX BOUNDS
-0.0432303 416.065
-0.0205235 132.609
0 39.3003
ITEM: NODES
1 1 -0.0432303 -0.0205235 0
2 1 416.065 -0.0205235 0
3 1 416.065 132.609 0
4 1 -0.0432303 132.609 0
5 1 -0.0432303 -0.0205235 39.3003
6 1 416.065 -0.0205235 39.3003
7 1 416.065 132.609 39.3003
8 1 -0.0432303 132.609 39.3003
ITEM: TIMESTEP
5000
ITEM: NUMBER OF CUBES
1
ITEM: CUBES
1 1 1 2 3 4 5 6 7 8
ITEM: TIMESTEP
5100
ITEM: NUMBER OF NODES
8
ITEM: BOX BOUNDS
-0.0432303 416.065
-0.0205235 132.694
0 39.3003
ITEM: NODES
1 1 -0.0432303 -0.0205235 0
2 1 416.065 -0.0205235 0
3 1 416.065 132.694 0
4 1 -0.0432303 132.694 0
5 1 -0.0432303 -0.0205235 39.3003
6 1 416.065 -0.0205235 39.3003
7 1 416.065 132.694 39.3003
8 1 -0.0432303 132.694 39.3003
ITEM: TIMESTEP
5100
ITEM: NUMBER OF CUBES
1
ITEM: CUBES
1 1 1 2 3 4 5 6 7 8
ITEM: TIMESTEP
5200
ITEM: NUMBER OF NODES
8
ITEM: BOX BOUNDS
-0.0432303 416.065
-0.0205235 132.856
0 39.3003
ITEM: NODES
1 1 -0.0432303 -0.0205235 0
2 1 416.065 -0.0205235 0
3 1 416.065 132.856 0
4 1 -0.0432303 132.856 0
5 1 -0.0432303 -0.0205235 39.3003
6 1 416.065 -0.0205235 39.3003
7 1 416.065 132.856 39.3003
8 1 -0.0432303 132.856 39.3003
ITEM: TIMESTEP
5200
ITEM: NUMBER OF CUBES
1
ITEM: CUBES
1 1 1 2 3 4 5 6 7 8
ITEM: TIMESTEP
5300
ITEM: NUMBER OF NODES
8
ITEM: BOX BOUNDS
-0.0432303 416.065
-0.0205235 133.186
0 39.3003
ITEM: NODES
1 1 -0.0432303 -0.0205235 0
2 1 416.065 -0.0205235 0
3 1 416.065 133.186 0
4 1 -0.0432303 133.186 0
5 1 -0.0432303 -0.0205235 39.3003
6 1 416.065 -0.0205235 39.3003
7 1 416.065 133.186 39.3003
8 1 -0.0432303 133.186 39.3003
ITEM: TIMESTEP
5300
ITEM: NUMBER OF CUBES
1
ITEM: CUBES
1 1 1 2 3 4 5 6 7 8
ITEM: TIMESTEP
5400
ITEM: NUMBER OF NODES
8
ITEM: BOX BOUNDS
-0.0432303 416.065
-0.0205235 133.071
0 39.3003
ITEM: NODES
1 1 -0.0432303 -0.0205235 0
2 1 416.065 -0.0205235 0
3 1 416.065 133.071 0
4 1 -0.0432303 133.071 0
5 1 -0.0432303 -0.0205235 39.3003
6 1 416.065 -0.0205235 39.3003
7 1 416.065 133.071 39.3003
8 1 -0.0432303 133.071 39.3003
ITEM: TIMESTEP
5400
ITEM: NUMBER OF CUBES
1
ITEM: CUBES
1 1 1 2 3 4 5 6 7 8
ITEM: TIMESTEP
5500
ITEM: NUMBER OF NODES
8
ITEM: BOX BOUNDS
-0.0432303 416.065
-0.0205235 133.282
0 39.3003
ITEM: NODES
1 1 -0.0432303 -0.0205235 0
2 1 416.065 -0.0205235 0
3 1 416.065 133.282 0
4 1 -0.0432303 133.282 0
5 1 -0.0432303 -0.0205235 39.3003
6 1 416.065 -0.0205235 39.3003
7 1 416.065 133.282 39.3003
8 1 -0.0432303 133.282 39.3003
ITEM: TIMESTEP
5500
ITEM: NUMBER OF CUBES
1
ITEM: CUBES
1 1 1 2 3 4 5 6 7 8
ITEM: TIMESTEP
5600
ITEM: NUMBER OF NODES
8
ITEM: BOX BOUNDS
-0.0432303 416.065
-0.0205235 133.293
0 39.3003
ITEM: NODES
1 1 -0.0432303 -0.0205235 0
2 1 416.065 -0.0205235 0
3 1 416.065 133.293 0
4 1 -0.0432303 133.293 0
5 1 -0.0432303 -0.0205235 39.3003
6 1 416.065 -0.0205235 39.3003
7 1 416.065 133.293 39.3003
8 1 -0.0432303 133.293 39.3003
ITEM: TIMESTEP
5600
ITEM: NUMBER OF CUBES
1
ITEM: CUBES
1 1 1 2 3 4 5 6 7 8
ITEM: TIMESTEP
5700
ITEM: NUMBER OF NODES
8
ITEM: BOX BOUNDS
-0.0432303 416.065
-0.0205235 133.229
0 39.3003
ITEM: NODES
1 1 -0.0432303 -0.0205235 0
2 1 416.065 -0.0205235 0
3 1 416.065 133.229 0
4 1 -0.0432303 133.229 0
5 1 -0.0432303 -0.0205235 39.3003
6 1 416.065 -0.0205235 39.3003
7 1 416.065 133.229 39.3003
8 1 -0.0432303 133.229 39.3003
ITEM: TIMESTEP
5700
ITEM: NUMBER OF CUBES
1
ITEM: CUBES
1 1 1 2 3 4 5 6 7 8
ITEM: TIMESTEP
5800
ITEM: NUMBER OF NODES
8
ITEM: BOX BOUNDS
-0.0432303 416.065
-0.0205235 133.307
0 39.3003
ITEM: NODES
1 1 -0.0432303 -0.0205235 0
2 1 416.065 -0.0205235 0
3 1 416.065 133.307 0
4 1 -0.0432303 133.307 0
5 1 -0.0432303 -0.0205235 39.3003
6 1 416.065 -0.0205235 39.3003
7 1 416.065 133.307 39.3003
8 1 -0.0432303 133.307 39.3003
ITEM: TIMESTEP
5800
ITEM: NUMBER OF CUBES
1
ITEM: CUBES
1 1 1 2 3 4 5 6 7 8
ITEM: TIMESTEP
5900
ITEM: NUMBER OF NODES
8
ITEM: BOX BOUNDS
-0.0432303 416.065
-0.0205235 133.13
0 39.3003
ITEM: NODES
1 1 -0.0432303 -0.0205235 0
2 1 416.065 -0.0205235 0
3 1 416.065 133.13 0
4 1 -0.0432303 133.13 0
5 1 -0.0432303 -0.0205235 39.3003
6 1 416.065 -0.0205235 39.3003
7 1 416.065 133.13 39.3003
8 1 -0.0432303 133.13 39.3003
ITEM: TIMESTEP
5900
ITEM: NUMBER OF CUBES
1
ITEM: CUBES
1 1 1 2 3 4 5 6 7 8
ITEM: TIMESTEP
6000
ITEM: NUMBER OF NODES
8
ITEM: BOX BOUNDS
-0.0432303 416.065
-0.0205235 132.909
0 39.3003
ITEM: NODES
1 1 -0.0432303 -0.0205235 0
2 1 416.065 -0.0205235 0
3 1 416.065 132.909 0
4 1 -0.0432303 132.909 0
5 1 -0.0432303 -0.0205235 39.3003
6 1 416.065 -0.0205235 39.3003
7 1 416.065 132.909 39.3003
8 1 -0.0432303 132.909 39.3003
ITEM: TIMESTEP
6000
ITEM: NUMBER OF CUBES
1
ITEM: CUBES
1 1 1 2 3 4 5 6 7 8
ITEM: TIMESTEP
6100
ITEM: NUMBER OF NODES
8
ITEM: BOX BOUNDS
-0.0432303 416.065
-0.0205235 132.812
0 39.3003
ITEM: NODES
1 1 -0.0432303 -0.0205235 0
2 1 416.065 -0.0205235 0
3 1 416.065 132.812 0
4 1 -0.0432303 132.812 0
5 1 -0.0432303 -0.0205235 39.3003
6 1 416.065 -0.0205235 39.3003
7 1 416.065 132.812 39.3003
8 1 -0.0432303 132.812 39.3003
ITEM: TIMESTEP
6100
ITEM: NUMBER OF CUBES
1
ITEM: CUBES
1 1 1 2 3 4 5 6 7 8
ITEM: TIMESTEP
6200
ITEM: NUMBER OF NODES
8
ITEM: BOX BOUNDS
-0.0432303 416.065
-0.0205235 132.689
0 39.3003
ITEM: NODES
1 1 -0.0432303 -0.0205235 0
2 1 416.065 -0.0205235 0
3 1 416.065 132.689 0
4 1 -0.0432303 132.689 0
5 1 -0.0432303 -0.0205235 39.3003
6 1 416.065 -0.0205235 39.3003
7 1 416.065 132.689 39.3003
8 1 -0.0432303 132.689 39.3003
ITEM: TIMESTEP
6200
ITEM: NUMBER OF CUBES
1
ITEM: CUBES
1 1 1 2 3 4 5 6 7 8
ITEM: TIMESTEP
6300
ITEM: NUMBER OF NODES
8
ITEM: BOX BOUNDS
-0.0432303 416.065
-0.0205235 132.507
0 39.3003
ITEM: NODES
1 1 -0.0432303 -0.0205235 0
2 1 416.065 -0.0205235 0
3 1 416.065 132.507 0
4 1 -0.0432303 132.507 0
5 1 -0.0432303 -0.0205235 39.3003
6 1 416.065 -0.0205235 39.3003
7 1 416.065 132.507 39.3003
8 1 -0.0432303 132.507 39.3003
ITEM: TIMESTEP
6300
ITEM: NUMBER OF CUBES
1
ITEM: CUBES
1 1 1 2 3 4 5 6 7 8
ITEM: TIMESTEP
6400
ITEM: NUMBER OF NODES
8
ITEM: BOX BOUNDS
-0.0432303 416.065
-0.0205235 132.388
0 39.3003
ITEM: NODES
1 1 -0.0432303 -0.0205235 0
2 1 416.065 -0.0205235 0
3 1 416.065 132.388 0
4 1 -0.0432303 132.388 0
5 1 -0.0432303 -0.0205235 39.3003
6 1 416.065 -0.0205235 39.3003
7 1 416.065 132.388 39.3003
8 1 -0.0432303 132.388 39.3003
ITEM: TIMESTEP
6400
ITEM: NUMBER OF CUBES
1
ITEM: CUBES
1 1 1 2 3 4 5 6 7 8
ITEM: TIMESTEP
6500
ITEM: NUMBER OF NODES
8
ITEM: BOX BOUNDS
-0.0432303 416.065
-0.0205235 132.18
0 39.3003
ITEM: NODES
1 1 -0.0432303 -0.0205235 0
2 1 416.065 -0.0205235 0
3 1 416.065 132.18 0
4 1 -0.0432303 132.18 0
5 1 -0.0432303 -0.0205235 39.3003
6 1 416.065 -0.0205235 39.3003
7 1 416.065 132.18 39.3003
8 1 -0.0432303 132.18 39.3003
ITEM: TIMESTEP
6500
ITEM: NUMBER OF CUBES
1
ITEM: CUBES
1 1 1 2 3 4 5 6 7 8
ITEM: TIMESTEP
6600
ITEM: NUMBER OF NODES
8
ITEM: BOX BOUNDS
-0.0432303 416.065
-0.0205235 132.148
0 39.3003
ITEM: NODES
1 1 -0.0432303 -0.0205235 0
2 1 416.065 -0.0205235 0
3 1 416.065 132.148 0
4 1 -0.0432303 132.148 0
5 1 -0.0432303 -0.0205235 39.3003
6 1 416.065 -0.0205235 39.3003
7 1 416.065 132.148 39.3003
8 1 -0.0432303 132.148 39.3003
ITEM: TIMESTEP
6600
ITEM: NUMBER OF CUBES
1
ITEM: CUBES
1 1 1 2 3 4 5 6 7 8
ITEM: TIMESTEP
6700
ITEM: NUMBER OF NODES
8
ITEM: BOX BOUNDS
-0.0432303 416.065
-0.0205235 132.148
0 39.3003
ITEM: NODES
1 1 -0.0432303 -0.0205235 0
2 1 416.065 -0.0205235 0
3 1 416.065 132.148 0
4 1 -0.0432303 132.148 0
5 1 -0.0432303 -0.0205235 39.3003
6 1 416.065 -0.0205235 39.3003
7 1 416.065 132.148 39.3003
8 1 -0.0432303 132.148 39.3003
ITEM: TIMESTEP
6700
ITEM: NUMBER OF CUBES
1
ITEM: CUBES
1 1 1 2 3 4 5 6 7 8
ITEM: TIMESTEP
6800
ITEM: NUMBER OF NODES
8
ITEM: BOX BOUNDS
-0.0432303 416.065
-0.0205235 132.148
0 39.3003
ITEM: NODES
1 1 -0.0432303 -0.0205235 0
2 1 416.065 -0.0205235 0
3 1 416.065 132.148 0
4 1 -0.0432303 132.148 0
5 1 -0.0432303 -0.0205235 39.3003
6 1 416.065 -0.0205235 39.3003
7 1 416.065 132.148 39.3003
8 1 -0.0432303 132.148 39.3003
ITEM: TIMESTEP
6800
ITEM: NUMBER OF CUBES
1
ITEM: CUBES
1 1 1 2 3 4 5 6 7 8
ITEM: TIMESTEP
6900
ITEM: NUMBER OF NODES
8
ITEM: BOX BOUNDS
-0.0432303 416.065
-0.0205235 132.148
0 39.3003
ITEM: NODES
1 1 -0.0432303 -0.0205235 0
2 1 416.065 -0.0205235 0
3 1 416.065 132.148 0
4 1 -0.0432303 132.148 0
5 1 -0.0432303 -0.0205235 39.3003
6 1 416.065 -0.0205235 39.3003
7 1 416.065 132.148 39.3003
8 1 -0.0432303 132.148 39.3003
ITEM: TIMESTEP
6900
ITEM: NUMBER OF CUBES
1
ITEM: CUBES
1 1 1 2 3 4 5 6 7 8
ITEM: TIMESTEP
7000
ITEM: NUMBER OF NODES
8
ITEM: BOX BOUNDS
-0.0432303 416.065
-0.0205235 132.148
0 39.3003
ITEM: NODES
1 1 -0.0432303 -0.0205235 0
2 1 416.065 -0.0205235 0
3 1 416.065 132.148 0